<VTKFile type="UnstructuredGrid" version="0.1" byte_order="LittleEndian">
   <UnstructuredGrid>
      <Piece  NumberOfPoints="25"  NumberOfCells="16">
         <Points>
            <DataArray type="Float32" NumberOfComponents="3" format="ascii">
0.000000 0.000000 0.000000
0.250000 0.000000 0.000000
0.500000 0.000000 0.000000
0.750000 0.000000 0.000000
1.000000 0.000000 0.000000
0.000000 0.250000 0.000000
0.250000 0.250000 0.000000
0.500000 0.250000 0.000000
0.750000 0.250000 0.000000
1.000000 0.250000 0.000000
0.000000 0.500000 0.000000
0.250000 0.500000 0.000000
0.500000 0.500000 0.000000
0.750000 0.500000 0.000000
1.000000 0.500000 0.000000
0.000000 0.750000 0.000000
0.250000 0.750000 0.000000
0.500000 0.750000 0.000000
0.750000 0.750000 0.000000
1.000000 0.750000 0.000000
0.000000 1.000000 0.000000
0.250000 1.000000 0.000000
0.500000 1.000000 0.000000
0.750000 1.000000 0.000000
1.000000 1.000000 0.000000
            </DataArray>
         </Points>
         <Cells>
            <DataArray type="Int32" Name="connectivity" format="ascii">
5 0 1 6 
6 1 2 7 
7 2 3 8 
8 3 4 9 
10 5 6 11 
11 6 7 12 
12 7 8 13 
13 8 9 14 
15 10 11 16 
16 11 12 17 
17 12 13 18 
18 13 14 19 
20 15 16 21 
21 16 17 22 
22 17 18 23 
23 18 19 24 

            </DataArray>
            <DataArray type="Int32" Name="offsets" format="ascii">
4 8 12 16 20 24 28 32 36 40 44 48 52 56 60 64 
            </DataArray>
            <DataArray type="Int32" Name="types" format="ascii">
7 7 7 7 7 7 7 7 7 7 7 7 7 7 7 7 
            </DataArray>
            </Cells>
         <CellData>
            <DataArray type="Float32" Name="neighbours_0" format="ascii">
2.000000 1.000000 0.000000 0.000000 1.000000 1.000000 0.000000 0.000000 0.000000 0.000000 0.000000 0.000000 0.000000 0.000000 0.000000 0.000000 
            </DataArray>
            <DataArray type="Float32" Name="neighbours_1" format="ascii">
1.000000 2.000000 1.000000 0.000000 1.000000 1.000000 1.000000 0.000000 0.000000 0.000000 0.000000 0.000000 0.000000 0.000000 0.000000 0.000000 
            </DataArray>
            <DataArray type="Float32" Name="neighbours_2" format="ascii">
0.000000 1.000000 2.000000 1.000000 0.000000 1.000000 1.000000 1.000000 0.000000 0.000000 0.000000 0.000000 0.000000 0.000000 0.000000 0.000000 
            </DataArray>
            <DataArray type="Float32" Name="neighbours_3" format="ascii">
0.000000 0.000000 1.000000 2.000000 0.000000 0.000000 1.000000 1.000000 0.000000 0.000000 0.000000 0.000000 0.000000 0.000000 0.000000 0.000000 
            </DataArray>
            <DataArray type="Float32" Name="neighbours_4" format="ascii">
1.000000 1.000000 0.000000 0.000000 2.000000 1.000000 0.000000 0.000000 1.000000 1.000000 0.000000 0.000000 0.000000 0.000000 0.000000 0.000000 
            </DataArray>
            <DataArray type="Float32" Name="neighbours_5" format="ascii">
1.000000 1.000000 1.000000 0.000000 1.000000 2.000000 1.000000 0.000000 1.000000 1.000000 1.000000 0.000000 0.000000 0.000000 0.000000 0.000000 
            </DataArray>
            <DataArray type="Float32" Name="neighbours_6" format="ascii">
0.000000 1.000000 1.000000 1.000000 0.000000 1.000000 2.000000 1.000000 0.000000 1.000000 1.000000 1.000000 0.000000 0.000000 0.000000 0.000000 
            </DataArray>
            <DataArray type="Float32" Name="neighbours_7" format="ascii">
0.000000 0.000000 1.000000 1.000000 0.000000 0.000000 1.000000 2.000000 0.000000 0.000000 1.000000 1.000000 0.000000 0.000000 0.000000 0.000000 
            </DataArray>
            <DataArray type="Float32" Name="neighbours_8" format="ascii">
0.000000 0.000000 0.000000 0.000000 1.000000 1.000000 0.000000 0.000000 2.000000 1.000000 0.000000 0.000000 1.000000 1.000000 0.000000 0.000000 
            </DataArray>
            <DataArray type="Float32" Name="neighbours_9" format="ascii">
0.000000 0.000000 0.000000 0.000000 1.000000 1.000000 1.000000 0.000000 1.000000 2.000000 1.000000 0.000000 1.000000 1.000000 1.000000 0.000000 
            </DataArray>
            <DataArray type="Float32" Name="neighbours_10" format="ascii">
0.000000 0.000000 0.000000 0.000000 0.000000 1.000000 1.000000 1.000000 0.000000 1.000000 2.000000 1.000000 0.000000 1.000000 1.000000 1.000000 
            </DataArray>
            <DataArray type="Float32" Name="neighbours_11" format="ascii">
0.000000 0.000000 0.000000 0.000000 0.000000 0.000000 1.000000 1.000000 0.000000 0.000000 1.000000 2.000000 0.000000 0.000000 1.000000 1.000000 
            </DataArray>
            <DataArray type="Float32" Name="neighbours_12" format="ascii">
0.000000 0.000000 0.000000 0.000000 0.000000 0.000000 0.000000 0.000000 1.000000 1.000000 0.000000 0.000000 2.000000 1.000000 0.000000 0.000000 
            </DataArray>
            <DataArray type="Float32" Name="neighbours_13" format="ascii">
0.000000 0.000000 0.000000 0.000000 0.000000 0.000000 0.000000 0.000000 1.000000 1.000000 1.000000 0.000000 1.000000 2.000000 1.000000 0.000000 
            </DataArray>
            <DataArray type="Float32" Name="neighbours_14" format="ascii">
0.000000 0.000000 0.000000 0.000000 0.000000 0.000000 0.000000 0.000000 0.000000 1.000000 1.000000 1.000000 0.000000 1.000000 2.000000 1.000000 
            </DataArray>
            <DataArray type="Float32" Name="neighbours_15" format="ascii">
0.000000 0.000000 0.000000 0.000000 0.000000 0.000000 0.000000 0.000000 0.000000 0.000000 1.000000 1.000000 0.000000 0.000000 1.000000 2.000000 
            </DataArray>
            <DataArray type="Float32" Name="counter" format="ascii">
0.000000 1.000000 2.000000 3.000000 4.000000 5.000000 6.000000 7.000000 8.000000 9.000000 10.000000 11.000000 12.000000 13.000000 14.000000 15.000000 
            </DataArray>
            <DataArray type="Float32" Name="boundary" format="ascii">
1.000000 1.000000 1.000000 1.000000 1.000000 0.000000 0.000000 1.000000 1.000000 0.000000 0.000000 1.000000 1.000000 1.000000 1.000000 1.000000 
            </DataArray>
         </CellData>
      </Piece>  
   </UnstructuredGrid>
</VTKFile>
